PSF

       6 !NTITLE
 REMARKS original generated structure x-plor psf file
 REMARKS 2 patches were applied to the molecule.
 REMARKS topology /home/mmlynarczyk/namd_template_amber/amber/OL3/OL3.rtf 
 REMARKS segment S { first A5; last G3; auto angles dihedrals }
 REMARKS defaultpatch A5 S:1  
 REMARKS defaultpatch G3 S:2  

      66 !NATOM
       1 S    1    A    HO5' UUHO   0.429500        1.0080           0
       2 S    1    A    O5'  UUOH  -0.622300       16.0000           0
       3 S    1    A    C5'  UUCI   0.055800       12.0100           0
       4 S    1    A    H5'  UNH1   0.067900        1.0080           0
       5 S    1    A    H5'' UNH1   0.067900        1.0080           0
       6 S    1    A    C4'  UUCT   0.106500       12.0100           0
       7 S    1    A    H4'  UNH1   0.117400        1.0080           0
       8 S    1    A    O4'  UUOS  -0.354800       16.0000           0
       9 S    1    A    C1'  UUCT   0.039400       12.0100           0
      10 S    1    A    H1'  UNH2   0.200700        1.0080           0
      11 S    1    A    N9   UAN   -0.025100       14.0100           0
      12 S    1    A    C8   UNC5   0.200600       12.0100           0
      13 S    1    A    H8   UNH5   0.155300        1.0080           0
      14 S    1    A    N7   UUNB  -0.607300       14.0100           0
      15 S    1    A    C5   UUCB   0.051500       12.0100           0
      16 S    1    A    C6   UUCA   0.700900       12.0100           0
      17 S    1    A    N6   UNN2  -0.901900       14.0100           0
      18 S    1    A    H61  USH    0.411500        1.0080           0
      19 S    1    A    H62  USH    0.411500        1.0080           0
      20 S    1    A    N1   UUNC  -0.761500       14.0100           0
      21 S    1    A    C2   UUCQ   0.587500       12.0100           0
      22 S    1    A    H2   UNH5   0.047300        1.0080           0
      23 S    1    A    N3   UUNC  -0.699700       14.0100           0
      24 S    1    A    C4   UUCB   0.305300       12.0100           0
      25 S    1    A    C3'  UUCT   0.202200       12.0100           0
      26 S    1    A    H3'  UNH1   0.061500        1.0080           0
      27 S    1    A    C2'  UUCT   0.067000       12.0100           0
      28 S    1    A    H2'  UNH1   0.097200        1.0080           0
      29 S    1    A    O2'  UUOH  -0.613900       16.0000           0
      30 S    1    A    HO2' UUHO   0.418600        1.0080           0
      31 S    1    A    O3'  UUOS  -0.524600       16.0000           0
      32 S    2    G    P    USP    1.166200       30.9700           0
      33 S    2    G    OP1  UNO2  -0.776000       16.0000           0
      34 S    2    G    OP2  UNO2  -0.776000       16.0000           0
      35 S    2    G    O5'  UUOS  -0.498900       16.0000           0
      36 S    2    G    C5'  UUCI   0.055800       12.0100           0
      37 S    2    G    H5'  UNH1   0.067900        1.0080           0
      38 S    2    G    H5'' UNH1   0.067900        1.0080           0
      39 S    2    G    C4'  UUCT   0.106500       12.0100           0
      40 S    2    G    H4'  UNH1   0.117400        1.0080           0
      41 S    2    G    O4'  UUOS  -0.354800       16.0000           0
      42 S    2    G    C1'  UUCT   0.019100       12.0100           0
      43 S    2    G    H1'  UNH2   0.200600        1.0080           0
      44 S    2    G    N9   UAN    0.049200       14.0100           0
      45 S    2    G    C8   UUCP   0.137400       12.0100           0
      46 S    2    G    H8   UNH5   0.164000        1.0080           0
      47 S    2    G    N7   UUNB  -0.570900       14.0100           0
      48 S    2    G    C5   UUCB   0.174400       12.0100           0
      49 S    2    G    C6   USC    0.477000       12.0100           0
      50 S    2    G    O6   USO   -0.559700       16.0000           0
      51 S    2    G    N1   UUNA  -0.478700       14.0100           0
      52 S    2    G    H1   USH    0.342400        1.0080           0
      53 S    2    G    C2   UUCA   0.765700       12.0100           0
      54 S    2    G    N2   UNN2  -0.967200       14.0100           0
      55 S    2    G    H21  USH    0.436400        1.0080           0
      56 S    2    G    H22  USH    0.436400        1.0080           0
      57 S    2    G    N3   UUNC  -0.632300       14.0100           0
      58 S    2    G    C4   UUCB   0.122200       12.0100           0
      59 S    2    G    C3'  UUCT   0.202200       12.0100           0
      60 S    2    G    H3'  UNH1   0.061500        1.0080           0
      61 S    2    G    C2'  UUCT   0.067000       12.0100           0
      62 S    2    G    H2'  UNH1   0.097200        1.0080           0
      63 S    2    G    O2'  UUOH  -0.613900       16.0000           0
      64 S    2    G    HO2' UUHO   0.418600        1.0080           0
      65 S    2    G    O3'  UUOH  -0.654100       16.0000           0
      66 S    2    G    HO3' UUHO   0.437600        1.0080           0

      71 !NBOND: bonds
       1       2       2       3       3       4       3       5
       3       6       6       7       6       8       6      25
       8       9       9      10       9      11       9      27
      11      12      11      24      12      13      12      14
      14      15      15      16      15      24      16      17
      16      20      17      18      17      19      20      21
      21      22      21      23      23      24      25      26
      25      27      25      31      27      28      27      29
      29      30      31      32      32      33      32      34
      32      35      35      36      36      37      36      38
      36      39      39      40      39      41      39      59
      41      42      42      43      42      44      42      61
      44      45      44      58      45      46      45      47
      47      48      48      49      48      58      49      50
      49      51      51      52      51      53      53      54
      53      57      54      55      54      56      57      58
      59      60      59      61      59      65      61      62
      61      63      63      64      65      66

     124 !NTHETA: angles
       1       2       3       2       3       6       2       3       5
       2       3       4       3       6      25       3       6       8
       3       6       7       4       3       6       4       3       5
       5       3       6       6      25      31       6      25      27
       6      25      26       6       8       9       7       6      25
       7       6       8       8       9      27       8       9      11
       8       9      10       8       6      25       9      27      29
       9      27      28       9      27      25       9      11      24
       9      11      12      10       9      27      10       9      11
      11      24      23      11      24      15      11      12      14
      11      12      13      11       9      27      12      14      15
      12      11      24      13      12      14      14      15      24
      14      15      16      15      24      23      15      16      20
      15      16      17      16      20      21      16      17      19
      16      17      18      16      15      24      17      16      20
      18      17      19      20      21      23      20      21      22
      21      23      24      22      21      23      25      27      29
      25      27      28      26      25      31      26      25      27
      27      29      30      27      25      31      28      27      29
      32      35      36      32      31      25      33      32      31
      33      32      35      33      32      34      34      32      31
      34      32      35      35      36      39      35      36      38
      35      36      37      35      32      31      36      39      59
      36      39      41      36      39      40      37      36      39
      37      36      38      38      36      39      39      59      65
      39      59      61      39      59      60      39      41      42
      40      39      59      40      39      41      41      42      61
      41      42      44      41      42      43      41      39      59
      42      61      63      42      61      62      42      61      59
      42      44      58      42      44      45      43      42      61
      43      42      44      44      58      57      44      58      48
      44      45      47      44      45      46      44      42      61
      45      47      48      45      44      58      46      45      47
      47      48      58      47      48      49      48      58      57
      48      49      51      48      49      50      49      51      53
      49      51      52      49      48      58      50      49      51
      51      53      57      51      53      54      52      51      53
      53      57      58      53      54      56      53      54      55
      54      53      57      55      54      56      59      61      63
      59      61      62      60      59      65      60      59      61
      61      63      64      61      59      65      62      61      63
      66      65      59

     188 !NPHI: dihedrals
       1       2       3       4       1       2       3       5
       1       2       3       6       2       3       6       7
       2       3       6       8       2       3       6      25
       3       6       8       9       3       6      25      26
       3       6      25      27       3       6      25      31
       4       3       6       7       4       3       6       8
       4       3       6      25       5       3       6       7
       5       3       6       8       5       3       6      25
       6      25      27       9       6      25      27      28
       6      25      27      29       6      25      31      32
       6       8       9      10       6       8       9      11
       6       8       9      27       7       6       8       9
       7       6      25      26       7       6      25      27
       7       6      25      31       8       9      11      12
       8       9      11      24       8       9      27      25
       8       9      27      28       8       9      27      29
       8       6      25      26       8       6      25      27
       8       6      25      31       9      27      25      26
       9      27      25      31       9      27      29      30
       9      11      12      13       9      11      12      14
       9      11      24      15       9      11      24      23
       9       8       6      25      10       9      11      12
      10       9      11      24      10       9      27      25
      10       9      27      28      10       9      27      29
      11      24      15      14      11      24      15      16
      11      24      23      21      11      12      14      15
      11       9      27      25      11       9      27      28
      11       9      27      29      12      14      15      16
      12      14      15      24      12      11       9      27
      12      11      24      15      12      11      24      23
      13      12      11      24      13      12      14      15
      14      15      16      17      14      15      16      20
      14      15      24      23      14      12      11      24
      15      24      23      21      15      16      17      18
      15      16      17      19      15      16      20      21
      16      20      21      22      16      20      21      23
      16      15      24      23      17      16      15      24
      17      16      20      21      18      17      16      20
      19      17      16      20      20      21      23      24
      20      16      15      24      22      21      23      24
      24      11       9      27      25      31      32      33
      25      31      32      34      25      31      32      35
      25      27      29      30      26      25      27      28
      26      25      27      29      26      25      31      32
      27      25      31      32      28      27      25      31
      28      27      29      30      29      27      25      31
      31      32      35      36      32      35      36      37
      32      35      36      38      32      35      36      39
      33      32      35      36      34      32      35      36
      35      36      39      40      35      36      39      41
      35      36      39      59      36      39      41      42
      36      39      59      60      36      39      59      61
      36      39      59      65      37      36      39      40
      37      36      39      41      37      36      39      59
      38      36      39      40      38      36      39      41
      38      36      39      59      39      59      61      42
      39      59      61      62      39      59      61      63
      39      59      65      66      39      41      42      43
      39      41      42      44      39      41      42      61
      40      39      41      42      40      39      59      60
      40      39      59      61      40      39      59      65
      41      42      44      45      41      42      44      58
      41      42      61      59      41      42      61      62
      41      42      61      63      41      39      59      60
      41      39      59      61      41      39      59      65
      42      61      59      60      42      61      59      65
      42      61      63      64      42      44      45      46
      42      44      45      47      42      44      58      48
      42      44      58      57      42      41      39      59
      43      42      44      45      43      42      44      58
      43      42      61      59      43      42      61      62
      43      42      61      63      44      58      48      47
      44      58      48      49      44      58      57      53
      44      45      47      48      44      42      61      59
      44      42      61      62      44      42      61      63
      45      47      48      49      45      47      48      58
      45      44      42      61      45      44      58      48
      45      44      58      57      46      45      44      58
      46      45      47      48      47      48      49      50
      47      48      49      51      47      48      58      57
      47      45      44      58      48      58      57      53
      48      49      51      52      48      49      51      53
      49      51      53      54      49      51      53      57
      49      48      58      57      50      49      48      58
      50      49      51      52      50      49      51      53
      51      53      54      55      51      53      54      56
      51      53      57      58      51      49      48      58
      52      51      53      54      52      51      53      57
      54      53      57      58      55      54      53      57
      56      54      53      57      58      44      42      61
      59      61      63      64      60      59      61      62
      60      59      61      63      60      59      65      66
      61      59      65      66      62      61      59      65
      62      61      63      64      63      61      59      65

      11 !NIMPHI: impropers
      11      14      12      13      12      24      11       9
      15      17      16      20      16      18      17      19
      20      23      21      22      44      47      45      46
      48      51      49      50      49      53      51      52
      53      55      54      56      54      51      53      57
      58      45      44      42

       0 !NDON: donors


       0 !NACC: acceptors


       0 !NNB

       0       0       0       0       0       0       0       0
       0       0       0       0       0       0       0       0
       0       0       0       0       0       0       0       0
       0       0       0       0       0       0       0       0
       0       0       0       0       0       0       0       0
       0       0       0       0       0       0       0       0
       0       0       0       0       0       0       0       0
       0       0       0       0       0       0       0       0
       0       0

       1       0 !NGRP
       0       0       0

