PSF

       6 !NTITLE
 REMARKS original generated structure x-plor psf file
 REMARKS 2 patches were applied to the molecule.
 REMARKS topology /home/mmlynarczyk/namd_template_amber/amber/OL3/OL3.rtf 
 REMARKS segment S { first G5; last U3; auto angles dihedrals }
 REMARKS defaultpatch G5 S:1  
 REMARKS defaultpatch U3 S:2  

      63 !NATOM
       1 S    1    G    HO5' UUHO   0.429500        1.0080           0
       2 S    1    G    O5'  UUOH  -0.622300       16.0000           0
       3 S    1    G    C5'  UUCI   0.055800       12.0100           0
       4 S    1    G    H5'  UNH1   0.067900        1.0080           0
       5 S    1    G    H5'' UNH1   0.067900        1.0080           0
       6 S    1    G    C4'  UUCT   0.106500       12.0100           0
       7 S    1    G    H4'  UNH1   0.117400        1.0080           0
       8 S    1    G    O4'  UUOS  -0.354800       16.0000           0
       9 S    1    G    C1'  UUCT   0.019100       12.0100           0
      10 S    1    G    H1'  UNH2   0.200600        1.0080           0
      11 S    1    G    N9   UAN    0.049200       14.0100           0
      12 S    1    G    C8   UUCP   0.137400       12.0100           0
      13 S    1    G    H8   UNH5   0.164000        1.0080           0
      14 S    1    G    N7   UUNB  -0.570900       14.0100           0
      15 S    1    G    C5   UUCB   0.174400       12.0100           0
      16 S    1    G    C6   USC    0.477000       12.0100           0
      17 S    1    G    O6   USO   -0.559700       16.0000           0
      18 S    1    G    N1   UUNA  -0.478700       14.0100           0
      19 S    1    G    H1   USH    0.342400        1.0080           0
      20 S    1    G    C2   UUCA   0.765700       12.0100           0
      21 S    1    G    N2   UNN2  -0.967200       14.0100           0
      22 S    1    G    H21  USH    0.436400        1.0080           0
      23 S    1    G    H22  USH    0.436400        1.0080           0
      24 S    1    G    N3   UUNC  -0.632300       14.0100           0
      25 S    1    G    C4   UUCB   0.122200       12.0100           0
      26 S    1    G    C3'  UUCT   0.202200       12.0100           0
      27 S    1    G    H3'  UNH1   0.061500        1.0080           0
      28 S    1    G    C2'  UUCT   0.067000       12.0100           0
      29 S    1    G    H2'  UNH1   0.097200        1.0080           0
      30 S    1    G    O2'  UUOH  -0.613900       16.0000           0
      31 S    1    G    HO2' UUHO   0.418600        1.0080           0
      32 S    1    G    O3'  UUOS  -0.524600       16.0000           0
      33 S    2    U    P    USP    1.166200       30.9700           0
      34 S    2    U    OP1  UNO2  -0.776000       16.0000           0
      35 S    2    U    OP2  UNO2  -0.776000       16.0000           0
      36 S    2    U    O5'  UUOS  -0.498900       16.0000           0
      37 S    2    U    C5'  UUCI   0.055800       12.0100           0
      38 S    2    U    H5'  UNH1   0.067900        1.0080           0
      39 S    2    U    H5'' UNH1   0.067900        1.0080           0
      40 S    2    U    C4'  UUCT   0.106500       12.0100           0
      41 S    2    U    H4'  UNH1   0.117400        1.0080           0
      42 S    2    U    O4'  UUOS  -0.354800       16.0000           0
      43 S    2    U    C1'  UUCT   0.067400       12.0100           0
      44 S    2    U    H1'  UNH2   0.182400        1.0080           0
      45 S    2    U    N1   UAN    0.041800       14.0100           0
      46 S    2    U    C6   UUCS  -0.112600       12.0100           0
      47 S    2    U    H6   UNH4   0.218800        1.0080           0
      48 S    2    U    C5   UUCS  -0.363500       12.0100           0
      49 S    2    U    H5   UUHA   0.181100        1.0080           0
      50 S    2    U    C4   USC    0.595200       12.0100           0
      51 S    2    U    O4   USO   -0.576100       16.0000           0
      52 S    2    U    N3   UUNA  -0.354900       14.0100           0
      53 S    2    U    H3   USH    0.315400        1.0080           0
      54 S    2    U    C2   USC    0.468700       12.0100           0
      55 S    2    U    O2   USO   -0.547700       16.0000           0
      56 S    2    U    C3'  UUCT   0.202200       12.0100           0
      57 S    2    U    H3'  UNH1   0.061500        1.0080           0
      58 S    2    U    C2'  UUCT   0.067000       12.0100           0
      59 S    2    U    H2'  UNH1   0.097200        1.0080           0
      60 S    2    U    O2'  UUOH  -0.613900       16.0000           0
      61 S    2    U    HO2' UUHO   0.418600        1.0080           0
      62 S    2    U    O3'  UUOH  -0.654100       16.0000           0
      63 S    2    U    HO3' UUHO   0.437600        1.0080           0

      67 !NBOND: bonds
       1       2       2       3       3       4       3       5
       3       6       6       7       6       8       6      26
       8       9       9      10       9      11       9      28
      11      12      11      25      12      13      12      14
      14      15      15      16      15      25      16      17
      16      18      18      19      18      20      20      21
      20      24      21      22      21      23      24      25
      26      27      26      28      26      32      28      29
      28      30      30      31      32      33      33      34
      33      35      33      36      36      37      37      38
      37      39      37      40      40      41      40      42
      40      56      42      43      43      44      43      45
      43      58      45      46      45      54      46      47
      46      48      48      49      48      50      50      51
      50      52      52      53      52      54      54      55
      56      57      56      58      56      62      58      59
      58      60      60      61      62      63

     118 !NTHETA: angles
       1       2       3       2       3       6       2       3       5
       2       3       4       3       6      26       3       6       8
       3       6       7       4       3       6       4       3       5
       5       3       6       6      26      32       6      26      28
       6      26      27       6       8       9       7       6      26
       7       6       8       8       9      28       8       9      11
       8       9      10       8       6      26       9      28      30
       9      28      29       9      28      26       9      11      25
       9      11      12      10       9      28      10       9      11
      11      25      24      11      25      15      11      12      14
      11      12      13      11       9      28      12      14      15
      12      11      25      13      12      14      14      15      25
      14      15      16      15      25      24      15      16      18
      15      16      17      16      18      20      16      18      19
      16      15      25      17      16      18      18      20      24
      18      20      21      19      18      20      20      24      25
      20      21      23      20      21      22      21      20      24
      22      21      23      26      28      30      26      28      29
      27      26      32      27      26      28      28      30      31
      28      26      32      29      28      30      33      36      37
      33      32      26      34      33      32      34      33      36
      34      33      35      35      33      32      35      33      36
      36      37      40      36      37      39      36      37      38
      36      33      32      37      40      56      37      40      42
      37      40      41      38      37      40      38      37      39
      39      37      40      40      56      62      40      56      58
      40      56      57      40      42      43      41      40      56
      41      40      42      42      43      58      42      43      45
      42      43      44      42      40      56      43      58      60
      43      58      59      43      58      56      43      45      54
      43      45      46      44      43      58      44      43      45
      45      54      55      45      54      52      45      46      48
      45      46      47      45      43      58      46      48      50
      46      48      49      46      45      54      47      46      48
      48      50      52      48      50      51      49      48      50
      50      52      54      50      52      53      51      50      52
      52      54      55      53      52      54      56      58      60
      56      58      59      57      56      62      57      56      58
      58      60      61      58      56      62      59      58      60
      63      62      56

     180 !NPHI: dihedrals
       1       2       3       4       1       2       3       5
       1       2       3       6       2       3       6       7
       2       3       6       8       2       3       6      26
       3       6       8       9       3       6      26      27
       3       6      26      28       3       6      26      32
       4       3       6       7       4       3       6       8
       4       3       6      26       5       3       6       7
       5       3       6       8       5       3       6      26
       6      26      28       9       6      26      28      29
       6      26      28      30       6      26      32      33
       6       8       9      10       6       8       9      11
       6       8       9      28       7       6       8       9
       7       6      26      27       7       6      26      28
       7       6      26      32       8       9      11      12
       8       9      11      25       8       9      28      26
       8       9      28      29       8       9      28      30
       8       6      26      27       8       6      26      28
       8       6      26      32       9      28      26      27
       9      28      26      32       9      28      30      31
       9      11      12      13       9      11      12      14
       9      11      25      15       9      11      25      24
       9       8       6      26      10       9      11      12
      10       9      11      25      10       9      28      26
      10       9      28      29      10       9      28      30
      11      25      15      14      11      25      15      16
      11      25      24      20      11      12      14      15
      11       9      28      26      11       9      28      29
      11       9      28      30      12      14      15      16
      12      14      15      25      12      11       9      28
      12      11      25      15      12      11      25      24
      13      12      11      25      13      12      14      15
      14      15      16      17      14      15      16      18
      14      15      25      24      14      12      11      25
      15      25      24      20      15      16      18      19
      15      16      18      20      16      18      20      21
      16      18      20      24      16      15      25      24
      17      16      15      25      17      16      18      19
      17      16      18      20      18      20      21      22
      18      20      21      23      18      20      24      25
      18      16      15      25      19      18      20      21
      19      18      20      24      21      20      24      25
      22      21      20      24      23      21      20      24
      25      11       9      28      26      32      33      34
      26      32      33      35      26      32      33      36
      26      28      30      31      27      26      28      29
      27      26      28      30      27      26      32      33
      28      26      32      33      29      28      26      32
      29      28      30      31      30      28      26      32
      32      33      36      37      33      36      37      38
      33      36      37      39      33      36      37      40
      34      33      36      37      35      33      36      37
      36      37      40      41      36      37      40      42
      36      37      40      56      37      40      42      43
      37      40      56      57      37      40      56      58
      37      40      56      62      38      37      40      41
      38      37      40      42      38      37      40      56
      39      37      40      41      39      37      40      42
      39      37      40      56      40      56      58      43
      40      56      58      59      40      56      58      60
      40      56      62      63      40      42      43      44
      40      42      43      45      40      42      43      58
      41      40      42      43      41      40      56      57
      41      40      56      58      41      40      56      62
      42      43      45      46      42      43      45      54
      42      43      58      56      42      43      58      59
      42      43      58      60      42      40      56      57
      42      40      56      58      42      40      56      62
      43      58      56      57      43      58      56      62
      43      58      60      61      43      45      46      47
      43      45      46      48      43      45      54      52
      43      45      54      55      43      42      40      56
      44      43      45      46      44      43      45      54
      44      43      58      56      44      43      58      59
      44      43      58      60      45      54      52      50
      45      54      52      53      45      46      48      49
      45      46      48      50      45      43      58      56
      45      43      58      59      45      43      58      60
      46      48      50      51      46      48      50      52
      46      45      43      58      46      45      54      52
      46      45      54      55      47      46      45      54
      47      46      48      49      47      46      48      50
      48      50      52      53      48      50      52      54
      48      46      45      54      49      48      50      51
      49      48      50      52      50      52      54      55
      51      50      52      53      51      50      52      54
      53      52      54      55      54      45      43      58
      56      58      60      61      57      56      58      59
      57      56      58      60      57      56      62      63
      58      56      62      63      59      58      56      62
      59      58      60      61      60      58      56      62

      12 !NIMPHI: impropers
      11      14      12      13      15      18      16      17
      16      20      18      19      20      22      21      23
      21      18      20      24      25      12      11       9
      45      48      46      47      45      52      54      55
      46      50      48      49      48      52      50      51
      50      54      52      53      54      46      45      43

       0 !NDON: donors


       0 !NACC: acceptors


       0 !NNB

       0       0       0       0       0       0       0       0
       0       0       0       0       0       0       0       0
       0       0       0       0       0       0       0       0
       0       0       0       0       0       0       0       0
       0       0       0       0       0       0       0       0
       0       0       0       0       0       0       0       0
       0       0       0       0       0       0       0       0
       0       0       0       0       0       0       0

       1       0 !NGRP
       0       0       0

