PSF

       6 !NTITLE
 REMARKS original generated structure x-plor psf file
 REMARKS 2 patches were applied to the molecule.
 REMARKS topology /home/mmlynarczyk/namd_template_amber/amber/OL3/OL3.rtf 
 REMARKS segment S { first U5; last U3; auto angles dihedrals }
 REMARKS defaultpatch U5 S:1  
 REMARKS defaultpatch U3 S:2  

      59 !NATOM
       1 S    1    U    HO5' UUHO   0.429500        1.0080           0
       2 S    1    U    O5'  UUOH  -0.622300       16.0000           0
       3 S    1    U    C5'  UUCI   0.055800       12.0100           0
       4 S    1    U    H5'  UNH1   0.067900        1.0080           0
       5 S    1    U    H5'' UNH1   0.067900        1.0080           0
       6 S    1    U    C4'  UUCT   0.106500       12.0100           0
       7 S    1    U    H4'  UNH1   0.117400        1.0080           0
       8 S    1    U    O4'  UUOS  -0.354800       16.0000           0
       9 S    1    U    C1'  UUCT   0.067400       12.0100           0
      10 S    1    U    H1'  UNH2   0.182400        1.0080           0
      11 S    1    U    N1   UAN    0.041800       14.0100           0
      12 S    1    U    C6   UUCS  -0.112600       12.0100           0
      13 S    1    U    H6   UNH4   0.218800        1.0080           0
      14 S    1    U    C5   UUCS  -0.363500       12.0100           0
      15 S    1    U    H5   UUHA   0.181100        1.0080           0
      16 S    1    U    C4   USC    0.595200       12.0100           0
      17 S    1    U    O4   USO   -0.576100       16.0000           0
      18 S    1    U    N3   UUNA  -0.354900       14.0100           0
      19 S    1    U    H3   USH    0.315400        1.0080           0
      20 S    1    U    C2   USC    0.468700       12.0100           0
      21 S    1    U    O2   USO   -0.547700       16.0000           0
      22 S    1    U    C3'  UUCT   0.202200       12.0100           0
      23 S    1    U    H3'  UNH1   0.061500        1.0080           0
      24 S    1    U    C2'  UUCT   0.067000       12.0100           0
      25 S    1    U    H2'  UNH1   0.097200        1.0080           0
      26 S    1    U    O2'  UUOH  -0.613900       16.0000           0
      27 S    1    U    HO2' UUHO   0.418600        1.0080           0
      28 S    1    U    O3'  UUOS  -0.524600       16.0000           0
      29 S    2    U    P    USP    1.166200       30.9700           0
      30 S    2    U    OP1  UNO2  -0.776000       16.0000           0
      31 S    2    U    OP2  UNO2  -0.776000       16.0000           0
      32 S    2    U    O5'  UUOS  -0.498900       16.0000           0
      33 S    2    U    C5'  UUCI   0.055800       12.0100           0
      34 S    2    U    H5'  UNH1   0.067900        1.0080           0
      35 S    2    U    H5'' UNH1   0.067900        1.0080           0
      36 S    2    U    C4'  UUCT   0.106500       12.0100           0
      37 S    2    U    H4'  UNH1   0.117400        1.0080           0
      38 S    2    U    O4'  UUOS  -0.354800       16.0000           0
      39 S    2    U    C1'  UUCT   0.067400       12.0100           0
      40 S    2    U    H1'  UNH2   0.182400        1.0080           0
      41 S    2    U    N1   UAN    0.041800       14.0100           0
      42 S    2    U    C6   UUCS  -0.112600       12.0100           0
      43 S    2    U    H6   UNH4   0.218800        1.0080           0
      44 S    2    U    C5   UUCS  -0.363500       12.0100           0
      45 S    2    U    H5   UUHA   0.181100        1.0080           0
      46 S    2    U    C4   USC    0.595200       12.0100           0
      47 S    2    U    O4   USO   -0.576100       16.0000           0
      48 S    2    U    N3   UUNA  -0.354900       14.0100           0
      49 S    2    U    H3   USH    0.315400        1.0080           0
      50 S    2    U    C2   USC    0.468700       12.0100           0
      51 S    2    U    O2   USO   -0.547700       16.0000           0
      52 S    2    U    C3'  UUCT   0.202200       12.0100           0
      53 S    2    U    H3'  UNH1   0.061500        1.0080           0
      54 S    2    U    C2'  UUCT   0.067000       12.0100           0
      55 S    2    U    H2'  UNH1   0.097200        1.0080           0
      56 S    2    U    O2'  UUOH  -0.613900       16.0000           0
      57 S    2    U    HO2' UUHO   0.418600        1.0080           0
      58 S    2    U    O3'  UUOH  -0.654100       16.0000           0
      59 S    2    U    HO3' UUHO   0.437600        1.0080           0

      62 !NBOND: bonds
       1       2       2       3       3       4       3       5
       3       6       6       7       6       8       6      22
       8       9       9      10       9      11       9      24
      11      12      11      20      12      13      12      14
      14      15      14      16      16      17      16      18
      18      19      18      20      20      21      22      23
      22      24      22      28      24      25      24      26
      26      27      28      29      29      30      29      31
      29      32      32      33      33      34      33      35
      33      36      36      37      36      38      36      52
      38      39      39      40      39      41      39      54
      41      42      41      50      42      43      42      44
      44      45      44      46      46      47      46      48
      48      49      48      50      50      51      52      53
      52      54      52      58      54      55      54      56
      56      57      58      59

     110 !NTHETA: angles
       1       2       3       2       3       6       2       3       5
       2       3       4       3       6      22       3       6       8
       3       6       7       4       3       6       4       3       5
       5       3       6       6      22      28       6      22      24
       6      22      23       6       8       9       7       6      22
       7       6       8       8       9      24       8       9      11
       8       9      10       8       6      22       9      24      26
       9      24      25       9      24      22       9      11      20
       9      11      12      10       9      24      10       9      11
      11      20      21      11      20      18      11      12      14
      11      12      13      11       9      24      12      14      16
      12      14      15      12      11      20      13      12      14
      14      16      18      14      16      17      15      14      16
      16      18      20      16      18      19      17      16      18
      18      20      21      19      18      20      22      24      26
      22      24      25      23      22      28      23      22      24
      24      26      27      24      22      28      25      24      26
      29      32      33      29      28      22      30      29      28
      30      29      32      30      29      31      31      29      28
      31      29      32      32      33      36      32      33      35
      32      33      34      32      29      28      33      36      52
      33      36      38      33      36      37      34      33      36
      34      33      35      35      33      36      36      52      58
      36      52      54      36      52      53      36      38      39
      37      36      52      37      36      38      38      39      54
      38      39      41      38      39      40      38      36      52
      39      54      56      39      54      55      39      54      52
      39      41      50      39      41      42      40      39      54
      40      39      41      41      50      51      41      50      48
      41      42      44      41      42      43      41      39      54
      42      44      46      42      44      45      42      41      50
      43      42      44      44      46      48      44      46      47
      45      44      46      46      48      50      46      48      49
      47      46      48      48      50      51      49      48      50
      52      54      56      52      54      55      53      52      58
      53      52      54      54      56      57      54      52      58
      55      54      56      59      58      52

     168 !NPHI: dihedrals
       1       2       3       4       1       2       3       5
       1       2       3       6       2       3       6       7
       2       3       6       8       2       3       6      22
       3       6       8       9       3       6      22      23
       3       6      22      24       3       6      22      28
       4       3       6       7       4       3       6       8
       4       3       6      22       5       3       6       7
       5       3       6       8       5       3       6      22
       6      22      24       9       6      22      24      25
       6      22      24      26       6      22      28      29
       6       8       9      10       6       8       9      11
       6       8       9      24       7       6       8       9
       7       6      22      23       7       6      22      24
       7       6      22      28       8       9      11      12
       8       9      11      20       8       9      24      22
       8       9      24      25       8       9      24      26
       8       6      22      23       8       6      22      24
       8       6      22      28       9      24      22      23
       9      24      22      28       9      24      26      27
       9      11      12      13       9      11      12      14
       9      11      20      18       9      11      20      21
       9       8       6      22      10       9      11      12
      10       9      11      20      10       9      24      22
      10       9      24      25      10       9      24      26
      11      20      18      16      11      20      18      19
      11      12      14      15      11      12      14      16
      11       9      24      22      11       9      24      25
      11       9      24      26      12      14      16      17
      12      14      16      18      12      11       9      24
      12      11      20      18      12      11      20      21
      13      12      11      20      13      12      14      15
      13      12      14      16      14      16      18      19
      14      16      18      20      14      12      11      20
      15      14      16      17      15      14      16      18
      16      18      20      21      17      16      18      19
      17      16      18      20      19      18      20      21
      20      11       9      24      22      28      29      30
      22      28      29      31      22      28      29      32
      22      24      26      27      23      22      24      25
      23      22      24      26      23      22      28      29
      24      22      28      29      25      24      22      28
      25      24      26      27      26      24      22      28
      28      29      32      33      29      32      33      34
      29      32      33      35      29      32      33      36
      30      29      32      33      31      29      32      33
      32      33      36      37      32      33      36      38
      32      33      36      52      33      36      38      39
      33      36      52      53      33      36      52      54
      33      36      52      58      34      33      36      37
      34      33      36      38      34      33      36      52
      35      33      36      37      35      33      36      38
      35      33      36      52      36      52      54      39
      36      52      54      55      36      52      54      56
      36      52      58      59      36      38      39      40
      36      38      39      41      36      38      39      54
      37      36      38      39      37      36      52      53
      37      36      52      54      37      36      52      58
      38      39      41      42      38      39      41      50
      38      39      54      52      38      39      54      55
      38      39      54      56      38      36      52      53
      38      36      52      54      38      36      52      58
      39      54      52      53      39      54      52      58
      39      54      56      57      39      41      42      43
      39      41      42      44      39      41      50      48
      39      41      50      51      39      38      36      52
      40      39      41      42      40      39      41      50
      40      39      54      52      40      39      54      55
      40      39      54      56      41      50      48      46
      41      50      48      49      41      42      44      45
      41      42      44      46      41      39      54      52
      41      39      54      55      41      39      54      56
      42      44      46      47      42      44      46      48
      42      41      39      54      42      41      50      48
      42      41      50      51      43      42      41      50
      43      42      44      45      43      42      44      46
      44      46      48      49      44      46      48      50
      44      42      41      50      45      44      46      47
      45      44      46      48      46      48      50      51
      47      46      48      49      47      46      48      50
      49      48      50      51      50      41      39      54
      52      54      56      57      53      52      54      55
      53      52      54      56      53      52      58      59
      54      52      58      59      55      54      52      58
      55      54      56      57      56      54      52      58

      12 !NIMPHI: impropers
      11      14      12      13      11      18      20      21
      12      16      14      15      14      18      16      17
      16      20      18      19      20      12      11       9
      41      44      42      43      41      48      50      51
      42      46      44      45      44      48      46      47
      46      50      48      49      50      42      41      39

       0 !NDON: donors


       0 !NACC: acceptors


       0 !NNB

       0       0       0       0       0       0       0       0
       0       0       0       0       0       0       0       0
       0       0       0       0       0       0       0       0
       0       0       0       0       0       0       0       0
       0       0       0       0       0       0       0       0
       0       0       0       0       0       0       0       0
       0       0       0       0       0       0       0       0
       0       0       0

       1       0 !NGRP
       0       0       0

